<?xml version="1.0"?>
<VTKFile type="UnstructuredGrid" version="2.2">
  <UnstructuredGrid>
    <Piece NumberOfPoints="306" NumberOfCells="536">
      <Points>
        <DataArray type="Float64" NumberOfComponents="3" format="ascii">0.8999999999997368 0 0 1 0 0 0.9267084444553141 0.07329155554456207 0 1 0.0999999999997993 0 0.8405577082800334 0.09537234672688914 0 0.918655253852327 0.1547565996949403 0 0.7999999999994734 0 0 1 0.1999999999996293 0 0.7434682632402785 0.08115158773433881 0 0.828537009271995 0.21299740854303 0 0.9152047797300289 0.2599601469179088 0 0.69999999999921 0 0 0.7676100611757157 0.1536005237776189 0 1 0.2999999999994072 0 0.6481106516471566 0.0806358280551665 0 0.6905873661141808 0.1538243214496581 0 0.7348999589720908 0.2246569544341786 0 0.8467425112355539 0.2859250601993118 0 0.9442192488128467 0.3503697658017553 0 0.5999999999989468 0 0 0.7756087490121851 0.3118765527706136 0 0.8711106039099576 0.3538803785547479 0 1 0.3999999999991157 0 0.5500419677293371 0.08345426881634563 0 0.5974897072319713 0.1496582136560197 0 0.6391845610035884 0.2189442252938424 0 0.6766984185653897 0.3047445787372188 0 0.9075155496128966 0.4432619360594272 0 0.4999999999986943 0 0 0.7091182405636749 0.3956802731694871 0 0.8036488902378862 0.4198324825606311 0 1 0.4999999999988242 0 0.4513835096789947 0.07721636231828889 0 0.500118580131082 0.1447517401629001 0 0.5443685634930924 0.2120927732961496 0 0.5831550400919083 0.2940988768368914 0 0.6178329117992065 0.3809166183608146 0 0.7323398769532097 0.4907936806558669 0 0.6471448638024462 0.4687540951907634 0 0.9144236213650555 0.5517773642747659 0 0.823690802856883 0.5161448476096415 0 0.3999999999989749 0 0 0.671694397382927 0.5560854428893103 0 1 0.5999999999985328 0 0.3487356256810197 0.09114159977964574 0 0.4124314024049232 0.1427323682075249 0 0.4500902045175055 0.2028915136412126 0 0.4903798163852889 0.2852509042309608 0 0.5275821232698055 0.3696520820145662 0 0.5616100157551218 0.4534178347809711 0 0.7519831866546128 0.5784853424443224 0 0.5916032876724517 0.5383382568396466 0 0.9184990715096726 0.6505215348581941 0 0.8370192264078199 0.6081501113612162 0 0.2999999999992664 0 0 0.6896023848673282 0.6393556598674505 0 0.6152252436018472 0.6188243794520829 0 1 0.6999999999982413 0 0.247346955383199 0.0869819579954295 0 0.3562476756445897 0.1936063392505611 0 0.3977747434283215 0.2777366316220463 0 0.4374704829979296 0.3615496366866282 0 0.4752975083245443 0.4446669598851066 0 0.5102831302415489 0.5245835314710403 0 0.7694797592959777 0.6644657681490074 0 0.5417537559401313 0.6028474482514569 0 0.919575187322995 0.7518100250108317 0 0.8428903982427327 0.6978998872278595 0 0.1999999999995579 0 0 0.2642297329821926 0.1836318947580956 0 0.7055420084500985 0.720034715678854 0 0.6258703122006467 0.6961221862733171 0 0.5667220140057173 0.6660487750187194 0 1 0.7999999999979498 0 0.1485495165996741 0.08246976104913703 0 0.1752207487577596 0.1696044265356418 0 0.3037848779041672 0.2706989556200705 0 0.3492646545572947 0.353064233029361 0 0.3894723195476634 0.4356365134679268 0 0.4254729550011209 0.517181471569983 0 0.4644148847356044 0.5947066827779673 0 0.7761217474050892 0.7379096953633607 0 0.50000000010885 0.6710552300961824 0 0.5530391108352034 0.7370354343780721 0 0.6397813117439836 0.7741706341102581 0 0.915054055434994 0.8518811762968055 0 0.8223162129816921 0.800980736670952 0 0.09999999999981467 0 0 0.2058349148921878 0.2616419733454727 0 0.7243259587995583 0.7964865103888081 0 0.5765366867247765 0.8152240936020245 0 1 0.8999999999976585 0 0.07320508075713326 0.07320508075729437 0 0.08453734567586091 0.1493491542450158 0 0.1008260270134434 0.2535518178207004 0 0.2518492279414695 0.3557393633668401 0 0.3178095094356798 0.4207820474392379 0 0.3330354090028066 0.5114103287082659 0 0.3803741400881685 0.5884379830745436 0 0.4190875102960816 0.6632167286375762 0 0.4628381078662192 0.7357189555788193 0 0.6414213565088243 0.8585786440342053 0 0.5 0.8 0 0.9167667619643325 0.9486687888031526 0 0.8311883079870145 0.9023900923537702 0 0 0 0 0.1605705860713144 0.3264859254373445 0 0.7445697828091224 0.8730777957577298 0 1 0.9999999999973885 0 0 0.100000000000416 0 0 0.200000000000832 0 0.08384455650125984 0.355198795685872 0 0.1672684407741253 0.4091344405511968 0 0.250313425962682 0.459409739803453 0 0.2980620821372656 0.6118307695493872 0 0.3565871028489062 0.6500502247672387 0 0.3849994893425133 0.7223642067049899 0 0.42346331369024 0.8152240934301189 0 0.9175431374145725 1.044742969450524 0 0.8368150709494141 0.992998494722769 0 0.7586706679046337 0.9485472050943738 0 0 0.3000000000012482 0 0.2518608821443553 0.5400248990666056 0 0.6847759065130513 0.9234633135530412 0 1 1.09999999999763 0 0 0.4000000000016644 0 0.08355276002135251 0.4515311808043361 0 0.1698641313554941 0.5149893985127563 0 0.2080293622635284 0.6024842587591657 0 0.3151064425960345 0.7035502641687911 0 0.3393524658189327 0.7862912838855047 0 0.9095642280631195 1.145464901083549 0 0.8455475289861771 1.068746289096201 0 0.7620555741452723 1.052125250745611 0 0.7 1 0 0.2344707758152875 0.6856413957162163 0 0.3585786441024883 0.8585786434228927 0 1 1.199999999997894 0 0 0.5000000000020806 0 0.07648222538196553 0.5504521475278862 0 0.1350523295590331 0.5981070173548538 0 0.1519172096113537 0.6736602505813301 0 0.2643867358368605 0.7661068596270635 0 0.2807095966054171 0.8534748363941702 0 0.9133974596213282 1.249999999998025 0 0.8071788447474233 1.127989122647119 0 0.6847759064779986 1.076536686531584 0 0.1857849804433579 0.7517180848085455 0 0.3152240935825789 0.9234633133221692 0 1 1.299999999998157 0 0.8474158903487021 1.185669653369367 0 0.7192904032686427 1.146525163471855 0 0 0.6000000000024965 0 0.06896871918282363 0.6489490313931308 0 0.0866025403788041 0.7500000000031208 0 0.2270119414459927 0.8176138770405299 0 0.2379444259175198 0.9478747491497386 0 0.9310252360825242 1.351060627125547 0 0.814213750462782 1.248282516740422 0 0.7729880583037992 1.182386122807035 0 0.6414213558300076 1.141421356644611 0 0.1525840171452283 0.8143303903659591 0 0.1928211551653523 0.8720108773590927 0 0.3 1 0 1 1.39999999999842 0 0.8480751762389456 1.326343359543372 0 0.7356132640424211 1.233893140155471 0 0.660647534142619 1.213708716010883 0 0 0.7000000000029127 0 0.09043577193250153 0.8545350989097977 0 0.2413293322401851 1.051452794566219 0 0.1544524709107128 0.9312537108601534 0 0.9233860619024206 1.449766867630864 0 0.8648589798567287 1.401924877406354 0 0.7655292241131187 1.314358603976294 0 0.5765366864111861 1.184775906527869 0 0 0.8000000000033287 0 0.3152240933101405 1.076536686020106 0 0.1631849291061533 1.007001505104531 0 1 1.499999999998683 0 0.7919249530764404 1.397537402955765 0 0.6848935573939051 1.296449735644108 0 0.6150005107248373 1.277635793254667 0 0 0.9000000000037447 0 0.2554302172100138 1.126922203940268 0 0.1688116921475924 1.097609907331036 0 0.08245686261475696 0.9552570305148569 0 0.9162018701991445 1.5484860449016 0 0.8298834719833132 1.484916129776222 0 0.7019282658849456 1.38816179258511 0 0.5371618921785037 1.264281044412616 0 0.3585786434919389 1.141421355966558 0 0.0832332380862537 1.05133121108407 0 1 1.599999999998947 0 0.7480316899432001 1.459934551457872 0 0.6434123948242646 1.34994938799301 0 0.5 1.2 0 0.5809124898265692 1.336783271374584 0 0 1.000000000004117 0 0.2756740411945797 1.203513489523474 0 0.1776837870472877 1.199019263236279 0 0.08494594464901953 1.148118823546409 0 0.915896000878176 1.644889778177609 0 0.8324409235120191 1.590693614056373 0 0.7495247319552357 1.54051982460419 0 0.6668970268160659 1.488537607368076 0 0.4469608891365944 1.262964565660847 0 0.4999999999239479 1.328944769942908 0 0.3602186881317387 1.225829365924665 0 0 1.100000000003467 0 1 1.69999999999921 0 0.6196258600976218 1.411562016988249 0 0.4234633131866277 1.184775906361278 0 0.5355851153713387 1.405293317317246 0 0.2944579913736145 1.27996528444209 0 0.2238782525176985 1.262090304653989 0 0.08042481273788898 1.248189974950938 0 0 1.200000000002774 0 0.9006103116983535 1.746764120372121 0 0.8392151858926732 1.673210480286885 0 0.74790579715239 1.644098790324001 0 0.6820750094901049 1.579275666662868 0 0.5745270451709429 1.482818528571017 0 0.4332779822498293 1.333951223286357 0 0.45824624410274 1.397152551881108 0 0.3741296877426141 1.303877813852231 0 0.1571096015302471 1.302100113462453 0 1 1.799999999999474 0 0.6105084337890491 1.564373105703787 0 0.4897168698661449 1.475416468704271 0 0.3103976150450273 1.36064434033815 0 0.2305202405786848 1.335534232083991 0 0 1.30000000000208 0 0.08150092846161942 1.349478465233251 0 0.9197334051072605 1.851832368287982 0 0.794754300220022 1.738754933301813 0 0.6507112337466741 1.646947817242272 0 0.524702491844976 1.55533304033394 0 0.3847747197373334 1.381175603034477 0 0.4083964045662397 1.46166159482439 0 0.1629807711370134 1.391849895202835 0 1 1.899999999999737 0 0.8270955652323969 1.830235965549781 0 0.6962062209692881 1.729326563639053 0 0.5625263094223897 1.63845196672321 0 0.4383906838717036 1.546581859948819 0 0.3283056025956705 1.443914557365886 0 0.2480168132555889 1.421514657860306 0 0 1.400000000001387 0 0.08557637863910647 1.448222635732765 0 0.9273790762772566 1.927379076277298 0 0.8537840203778918 1.91716948887053 0 0.7387058461438462 1.815533081837931 0 0.6022207035684635 1.722265644181595 0 0.4724170447165841 1.630347677793813 0 0.3528525898992705 1.531245319339757 0 0.1763091771213131 1.48385520584716 0 1 2 0 0.7533307409967183 1.913194168916686 0 0.6437523247093816 1.806393661031132 0 0.5096182081853526 1.714749264133497 0 0.3821619967362254 1.619082703260351 0 0.2676601230278811 1.509206319693721 0 0 1.500000000000693 0 0.09248433052293854 1.556738383259781 0 0.8999999999995836 2 0 0.7999999999999998 2 0 0.6512638582095686 1.90886962218781 0 0.5499095125365013 1.797108592691058 0 0.4168402538289733 1.705900048100488 0 0.2908708734752363 1.604317196856144 0 0.1963434369557107 1.580166207477251 0 0.7000000000006934 2 0 0.
[...]
      <CellData Scalars="p">
        <DataArray type="UInt8" Name="vtkGhostType" format="ascii" RangeMin="0" RangeMax="1">0 0 0 0 0 0 0 0 0 0 0 0 0 0 0 0 0 0 0 0 0 0 0 0 0 0 0 0 0 0 0 0 0 0 0 0 0 0 0 0 0 0 0 0 0 0 0 0 0 0 0 0 0 0 0 0 0 0 0 0 0 0 0 0 0 0 0 0 0 0 0 0 0 0 0 0 0 0 0 0 0 0 0 0 0 0 0 0 0 0 0 0 0 0 0 0 0 0 0 0 0 0 0 0 0 0 0 0 0 0 0 0 0 0 0 0 0 0 0 0 0 0 0 0 0 0 0 0 0 0 0 0 0 0 0 0 0 0 0 0 0 0 0 0 0 0 0 0 0 0 0 0 0 0 0 0 0 0 0 0 0 0 0 0 0 0 0 0 0 0 0 0 0 0 0 0 0 0 0 0 0 0 0 0 0 0 0 0 0 0 0 0 0 0 0 0 0 0 0 0 0 0 0 0 0 0 0 0 0 0 0 0 0 0 0 0 0 0 0 0 0 0 0 0 0 0 0 0 0 0 0 0 0 0 0 0 0 0 0 0 0 0 0 0 0 0 0 0 0 0 0 0 0 0 0 0 0 0 0 0 0 0 0 0 0 0 0 0 0 0 0 0 0 0 0 0 0 0 0 0 0 0 0 0 0 0 0 0 0 0 0 0 0 0 0 0 0 0 0 0 0 0 0 0 0 0 0 0 0 0 0 0 0 0 0 0 0 0 0 0 0 0 0 0 0 0 0 0 0 0 0 0 0 0 0 0 0 0 0 0 0 0 0 0 0 0 0 0 0 0 0 0 0 0 0 0 0 0 0 0 0 0 0 0 0 0 0 0 0 0 0 0 0 0 0 0 0 0 0 0 0 0 0 0 0 0 0 0 0 0 0 0 0 0 0 0 0 0 0 0 0 0 0 0 0 0 0 0 0 0 0 0 0 0 0 0 0 0 0 0 0 0 0 0 0 0 0 0 0 0 0 0 0 0 0 0 0 0 0 0 0 0 0 0 0 0 0 0 0 0 0 0 0 0 0 0 0 0 0 0 0 0 0 0 0 0 0 0 0 0 0 0 0 0 0 0 0 0 0 0 0 0 0 0 0 0 0 0 0 0 0 0 0 0 0 0 0 0 0 0 0 0 0 0 0 0 0 0 0 0 0 0 0 0 0 0 0 0 0 0 0 0 0 0 0 0 0 0 0 0 0 0 0 0 0 0 </DataArray>
        <DataArray type="Int64" IdType="1" Name="vtkOriginalCellIds" format="ascii" RangeMin="0" RangeMax="535">0 1 2 3 4 5 6 7 8 9 10 11 12 13 14 15 16 17 18 19 20 21 22 23 24 25 26 27 28 29 30 31 32 33 34 35 36 37 38 39 40 41 42 43 44 45 46 47 48 49 50 51 52 53 54 55 56 57 58 59 60 61 62 63 64 65 66 67 68 69 70 71 72 73 74 75 76 77 78 79 80 81 82 83 84 85 86 87 88 89 90 91 92 93 94 95 96 97 98 99 100 101 102 103 104 105 106 107 108 109 110 111 112 113 114 115 116 117 118 119 120 121 122 123 124 125 126 127 128 129 130 131 132 133 134 135 136 137 138 139 140 141 142 143 144 145 146 147 148 149 150 151 152 153 154 155 156 157 158 159 160 161 162 163 164 165 166 167 168 169 170 171 172 173 174 175 176 177 178 179 180 181 182 183 184 185 186 187 188 189 190 191 192 193 194 195 196 197 198 199 200 201 202 203 204 205 206 207 208 209 210 211 212 213 214 215 216 217 218 219 220 221 222 223 224 225 226 227 228 229 230 231 232 233 234 235 236 237 238 239 240 241 242 243 244 245 246 247 248 249 250 251 252 253 254 255 256 257 258 259 260 261 262 263 264 265 266 267 268 269 270 271 272 273 274 275 276 277 278 279 280 281 282 283 284 285 286 287 288 289 290 291 292 293 294 295 296 297 298 299 300 301 302 303 304 305 306 307 308 309 310 311 312 313 314 315 316 317 318 319 320 321 322 323 324 325 326 327 328 329 330 331 332 333 334 335 336 337 338 339 340 341 342 343 344 345 346 347 348 349 350 351 352 353 354 355 356 357 358 359 360 361 362 363 364 365 366 367 368 369 370 371 372 373 374 375 376 377 378 379 380 381 382 383 384 385 386 387 388 389 390 391 392 393 394 395 396 397 398 399 400 401 402 403 404 405 406 407 408 409 410 411 412 413 414 415 416 417 418 419 420 421 422 423 424 425 426 427 428 429 430 431 432 433 434 435 436 437 438 439 440 441 442 443 444 445 446 447 448 449 450 451 452 453 454 455 456 457 458 459 460 461 462 463 464 465 466 467 468 469 470 471 472 473 474 475 476 477 478 479 480 481 482 483 484 485 486 487 488 489 490 491 492 493 494 495 496 497 498 499 500 501 502 503 504 505 506 507 508 509 510 511 512 513 514 515 516 517 518 519 520 521 522 523 524 525 526 527 528 529 530 531 532 533 534 535 </DataArray>
        <DataArray type="Float64" Name="p" format="ascii">0 0.0009134093768507404 0 2.160195861662229e-05 0 0 0 0 0 0 0 0 0 0 0.0001544301381381005 0 0 0 0 0.0005755004448634543 0 0 0 0 0 0 0.001989419954566752 0.0003424649392200837 0 0 0 0 0 0.002581554251851972 0.001270663944478688 0 0 0 0 0 0 0 0.005072696954786311 0.0007380490288950431 0 0 0 0 0 0 0 0.00612735815163264 0.001299420505041003 0 0 0 0 0 0 0.0003018740286854782 0 0.01156416981501803 0.003825938700851776 0 0 0 0 0 0 0.0004881861344835151 1.458398307076975e-05 0 0.01345892832969374 0.004849520023852581 0 0 0 0 0 0 0 0.002709370627369777 5.152474796105504e-05 0 0.02302319250538295 0.008949889593706458 0 0 0 0 0 0 0 0.003709405977598297 0.002018257169465744 0 0 0.02537566938316744 0.0105789176922722 0 0 0 0 0 0 0 0 0.007290085933911982 0.003484351012608224 0 0 0 0.02516916005802049 0.01848581452469036 0 0 0 0 0 0 0 0 0.009554692030457303 0.00167461916365392 0.007222851850518151 0 0 0.0002167361177332942 0.02300932548831743 0.02355599525905468 0 0 0 0 0 0 0 0 0 0.01700110598599745 0.00221817699585514 0.009646345265657625 0 0 0.009342321893671715 0.03000796454335508 0 0 0 0 0 0 0 0 0 0.01839945719425136 0.006060510634999086 0 0 0.0009724191309288149 0.007033671165877164 0.03284562586998621 0 0 0 0 0 0 0 0 0 0 0.02460141524769069 0.003740771102772031 0 0.002245631226351 0.01699979900066374 0.0364806172001103 0.0008776434581312787 2.171701507296103e-05 0 0.000126091671212247 0 0 0 0 0 0 0.01186567161143356 0.000897656836834844 0.003769409995342053 0.01192292255501878 0.03791910189737276 0 0.0001236985278068433 0.0003951729404879408 0.0002044007373563978 0 0 0 0 0 0 0.009782194700346287 0.002136877343951035 0.005725911867469728 0.02216084490689294 0.03092637212380373 0.001844300284045582 0.001305257558428285 0.0004521689276661952 0.000399758187753708 0.0009471622523534829 0.0007148252934763359 0.0006830159387458052 0.0004121001124659813 0.007058365351028981 0.007948933023954653 0.02670112405513835 0.09098208167698088 0.002569446158706425 0.001710008508166575 0.001646883598723829 0.003055529066694383 0.002981533215845332 0.002483949482595978 0.0004458459293830182 0.009103445357068154 0.01303835224598011 0.01672344368829233 0.06954864928731659 0.005236012377494727 0.004241044794101559 0.003936028583398312 0.006419586424899737 0.006645566272395917 0.005869082044664757 0.004285424223206212 0.02323310000249068 0.02784839813531183 0.03201975425685537 0.09495199347641303 0.006473561447247839 0.005396458622383736 0.006479795613719795 0.01083876158535927 0.01145193998622018 0.01045820384035637 0.005589352228430921 0.02731889035231864 0.03421136500565733 0.03609176320846971 0.03922575271058807 0.02667239319493145 0.01146824308991788 0.009704807666023638 0.01037841238071949 0.01814402669232923 0.0171527944244555 0.01787063457256457 0.02667233059350888 0.02628378807676215 0.02713683689324168 0.03665960560706404 0.03000630217198995 0.005589379792879215 0.01366460829868415 0.0172467627265926 0.02713703917782748 0.02562018791207217 0.03000613144181023 0.09495164488781442 0.03922555425545272 0.0241041111176442 0.01724569841941295 0.01814376627916792 0.02562024162015743 0.01787086512405331 0.004285498845878133 0.02410457095488794 0.02628471938031741 0.03421087407269199 0.03665956163024627 0.06954822960790862 0.03201942705900371 0.0136540254072655 0.01037537813014882 0.01083850592817269 0.01715295541089644 0.01045832477997897 0.0004458508704358536 0.02731848200861028 0.02323271936201193 0.03609133390941183 0.09098146817608525 0.0267009837174901 0.016723276038909 0.02784806389611723 0.01146030474878857 0.009693865316633273 0.006476158987083824 0.006418389326815701 0.01145202073110189 0.005869158907450153 0.0004121030748246331 0.009103231675949579 0.03092609120327961 0.02216060966289575 0.007948818181415167 0.01303815820103558 0.006463990889237895 0.005386948583899063 0.00393079707401495 0.003054593970258498 0.006645694204019497 0.002483947778786643 0 0.007058191059975813 0.009782183598197044 0.03791859440035073 0.01192279032428104 0.005725795563128844 0.005232766270399898 0.004230593975595233 0.001642447334374222 0.002981537999607176 0.0009452128584353829 0.0006830011952594479 0.0008976848572284264 0 0.002136714521401792 0.01186560551621449 0.03648017493066796 0.0169996004762278 0.003769258519665992 0.002564400797072826 0.001704194071319712 0.0003970632405985061 0.0007147616561565329 0 0 0 0 0.003740772509092923 0.02460125036255113 0.03284518939807188 0.007033538134912485 0.002245485196503172 0.001841281672475227 0.001299680558445814 0.0004493807730777902 0 0 0 0 0.000972414189069072 0 0 0 0.006060510836641983 0.01839934742164134 0.03000752317788096 0.009342140821848994 0.000396566220658396 0.0002030281460934363 0 0 0 0 0 0 0 0.002218200436445373 0.009646307975219566 0.01700098204595024 0.02300893921711469 0.0235557075423258 0.0001238030781180287 0.0001257430595314401 0 0 0 0 0 0.000216745684954945 0 0 0 0.001674644588944378 0.007222819914606077 0.009554628699242831 0.02516874645782792 0.0184855917385671 0 0 0 0 0 0 0 0 0 0 0 0.003484350014363322 0.007290029927809735 0.02537528071899617 0.01057882958684148 0 0 0 0 0 0 0 0 0 0 0 0.002018256690276564 0.003709372897712131 0.02302287296770497 0.008949810043999532 2.163761168550469e-05 0 0 0 0 0 0 0 0 0 5.153310638575895e-05 0.002709327840339048 0.01345879129809686 0.00484945395170997 0.0008791261521002314 0 0 0 0 0 0 0 0 0 0 1.459504257368361e-05 0.0004881902372635902 0.01156404057509036 0.003825853558611998 0 0 0 0 0 0 0 0 0 0 0 0.0003018790588660946 0.006127269314873157 0.001299375155278145 0 0 0 0 0 0 0 0 0 0 0 0.0050726285694306 0.0007378878474421022 0 0 0 0 0 0 0 0 0.002581074123235236 0.001269677368799677 0 0 0 0 0 0 0 0.001989253351984631 0.0003403446542599288 0 0 0 0 0 0 0 0.0005723849828693106 0 0 0 0 0 0 0 0.0001538424354927221 0 0 0 0 0 0 0 0 0 0 0 0 0 0 0 0 0 2.689877084322058e-05 0 0 0.0009191269741512795 0 </DataArray>
      </CellData>
      <PointData>
        <DataArray type="Int64" IdType="1" Name="vtkOriginalPointIds" format="ascii" RangeMin="0" RangeMax="305">16 1 286 17 225 248 15 18 91 249 98 14 296 19 222 270 178 290 300 13 179 198 20 78 272 176 177 80 12 212 195 21 220 278 174 175 239 166 252 211 194 11 165 22 86 302 161 137 238 127 163 260 94 245 10 155 268 23 228 236 136 129 126 124 162 123 209 262 9 172 154 153 280 24 250 257 138 130 128 125 122 164 120 119 84 133 259 8 159 256 73 25 288 103 224 152 294 131 242 121 77 74 7 205 203 0 277 134 26 63 62 82 230 231 192 305 274 72 105 201 97 61 264 75 27 60 216 217 193 186 144 207 282 147 4 187 71 28 59 88 299 214 145 93 100 148 64 244 70 29 283 92 58 267 101 292 146 266 243 293 65 285 149 5 30 215 143 142 57 206 96 284 89 298 189 66 56 69 200 31 191 188 275 55 135 202 104 218 219 190 76 68 204 32 265 304 6 108 54 255 258 132 83 232 233 118 106 107 85 53 33 241 67 109 157 169 208 52 227 276 150 295 112 281 110 156 263 34 115 111 158 167 51 95 254 151 117 113 269 261 246 35 247 141 116 114 170 168 50 210 289 102 173 139 237 253 196 2 229 235 140 240 171 49 81 36 37 87 160 181 213 197 38 303 180 183 48 199 39 221 279 182 185 301 273 184 47 90 291 40 79 271 234 223 297 46 41 99 251 226 42 45 43 287 44 3 </DataArray>
        <DataArray type="UInt8" Name="vtkGhostType" format="ascii" RangeMin="0" RangeMax="0">0 0 0 0 0 0 0 0 0 0 0 0 0 0 0 0 0 0 0 0 0 0 0 0 0 0 0 0 0 0 0 0 0 0 0 0 0 0 0 0 0 0 0 0 0 0 0 0 0 0 0 0 0 0 0 0 0 0 0 0 0 0 0 0 0 0 0 0 0 0 0 0 0 0 0 0 0 0 0 0 0 0 0 0 0 0 0 0 0 0 0 0 0 0 0 0 0 0 0 0 0 0 0 0 0 0 0 0 0 0 0 0 0 0 0 0 0 0 0 0 0 0 0 0 0 0 0 0 0 0 0 0 0 0 0 0 0 0 0 0 0 0 0 0 0 0 0 0 0 0 0 0 0 0 0 0 0 0 0 0 0 0 0 0 0 0 0 0 0 0 0 0 0 0 0 0 0 0 0 0 0 0 0 0 0 0 0 0 0 0 0 0 0 0 0 0 0 0 0 0 0 0 0 0 0 0 0 0 0 0 0 0 0 0 0 0 0 0 0 0 0 0 0 0 0 0 0 0 0 0 0 0 0 0 0 0 0 0 0 0 0 0 0 0 0 0 0 0 0 0 0 0 0 0 0 0 0 0 0 0 0 0 0 0 0 0 0 0 0 0 0 0 0 0 0 0 0 0 0 0 0 0 0 0 0 0 0 0 0 0 0 0 0 0 0 0 0 0 0 0 0 0 0 0 0 0 </DataArray>
      </PointData>
    </Piece>
  </UnstructuredGrid>
</VTKFile>
